<?xml version="1.0" encoding="UTF-8"?>

<!-- generated on 2023-06-23 11:18:10 by Eclipse SUMO GUI Version 1.16.0
<configuration xmlns:xsi="http://www.w3.org/2001/XMLSchema-instance" xsi:noNamespaceSchemaLocation="http://sumo.dlr.de/xsd/sumoConfiguration.xsd">

    <input>
        <net-file value="new cfg/highway.net.xml"/>
        <route-files value="new cfg/highway.rou.xml"/>
        <additional-files value="new cfg/parkingarea.add.xml,new cfg/ detector.add.xml"/>
    </input>

    <output>
        <emission-output value="new cfg/emission.xml"/>
    </output>

    <time>
        <begin value="0"/>
        <end value="81600"/>
        <step-length value="0.01"/>
    </time>

    <processing>
        <collision.action value="remove"/>
        <collision.stoptime value="10"/>
        <lanechange.duration value="3"/>
    </processing>

    <traci_server>
        <remote-port value="50187"/>
    </traci_server>

    <gui_only>
        <gui-settings-file value="new cfg/highway.gui.xml"/>
        <start value="true"/>
    </gui_only>

</configuration>
-->

<emission-export xmlns:xsi="http://www.w3.org/2001/XMLSchema-instance" xsi:noNamespaceSchemaLocation="http://sumo.dlr.de/xsd/emission_file.xsd">
    <timestep time="0.00"/>
    <timestep time="0.01">
        <vehicle id="v.0.0" eclass="HBEFA3/PC_G_EU4" CO2="3169.72" CO="0.00" HC="0.03" NOx="0.95" PMx="0.03" fuel="1011.00" electricity="0.00" noise="68.55" route="platoon_route" type="vtypeauto" waiting="0.00" lane="E0_2" pos="10.00" speed="20.00" angle="89.86" x="92.00" y="54.16"/>
        <vehicle id="v.0.1" eclass="HBEFA3/PC_G_EU4" CO2="3169.72" CO="0.00" HC="0.03" NOx="0.95" PMx="0.03" fuel="1011.00" electricity="0.00" noise="68.55" route="platoon_route" type="vtypeauto" waiting="0.00" lane="E0_1" pos="25.00" speed="20.00" angle="89.86" x="107.01" y="50.99"/>
        <vehicle id="v.0.2" eclass="HBEFA3/PC_G_EU4" CO2="3169.72" CO="0.00" HC="0.03" NOx="0.95" PMx="0.03" fuel="1011.00" electricity="0.00" noise="68.55" route="platoon_route" type="vtypeauto" waiting="0.00" lane="E0_0" pos="50.00" speed="20.00" angle="89.86" x="132.02" y="47.86"/>
        <vehicle id="v.1.1" eclass="HBEFA3/PC_G_EU4" CO2="4287.22" CO="18.25" HC="0.19" NOx="1.36" PMx="0.07" fuel="1367.43" electricity="0.00" noise="71.38" route="platoon_route" type="passenger2" waiting="0.00" lane="E0_2" pos="40.00" speed="25.00" angle="89.86" x="122.00" y="54.23"/>
    </timestep>
    <timestep time="0.02">
        <vehicle id="v.0.0" eclass="HBEFA3/PC_G_EU4" CO2="11955.92" CO="170.49" HC="1.07" NOx="5.09" PMx="0.26" fuel="3813.33" electricity="0.00" noise="73.05" route="platoon_route" type="vtypeauto" waiting="0.00" lane="E0_2" pos="10.20" speed="20.02" angle="89.86" x="92.20" y="54.16"/>
        <vehicle id="v.0.1" eclass="HBEFA3/PC_G_EU4" CO2="16205.64" CO="257.97" HC="1.57" NOx="7.10" PMx="0.37" fuel="5168.77" electricity="0.00" noise="76.08" route="platoon_route" type="vtypeauto" waiting="0.00" lane="E0_1" pos="25.20" speed="20.02" angle="89.86" x="107.21" y="50.99"/>
        <vehicle id="v.0.2" eclass="HBEFA3/PC_G_EU4" CO2="10404.21" CO="138.54" HC="0.89" NOx="4.36" PMx="0.22" fuel="3318.42" electricity="0.00" noise="72.05" route="platoon_route" type="vtypeauto" waiting="0.00" lane="E0_0" pos="50.20" speed="20.01" angle="89.86" x="132.22" y="47.86"/>
        <vehicle id="v.1.1" eclass="HBEFA3/PC_G_EU4" CO2="7643.70" CO="87.37" HC="0.59" NOx="2.94" PMx="0.16" fuel="2437.97" electricity="0.00" noise="72.34" route="platoon_route" type="passenger2" waiting="0.00" lane="E0_2" pos="40.25" speed="25.01" angle="89.86" x="122.25" y="54.23"/>
    </timestep>
    <timestep time="0.03">
        <vehicle id="v.0.0" eclass="HBEFA3/PC_G_EU4" CO2="11124.65" CO="153.36" HC="0.97" NOx="4.70" PMx="0.24" fuel="3548.20" electricity="0.00" noise="72.51" route="platoon_route" type="vtypeauto" waiting="0.00" lane="E0_2" pos="10.40" speed="20.03" angle="89.86" x="92.40" y="54.16"/>
        <vehicle id="v.0.1" eclass="HBEFA3/PC_G_EU4" CO2="11945.40" CO="170.25" HC="1.07" NOx="5.09" PMx="0.26" fuel="3809.98" electricity="0.00" noise="73.05" route="platoon_route" type="vtypeauto" waiting="0.00" lane="E0_1" pos="25.40" speed="20.04" angle="89.86" x="107.41" y="50.99"/>
        <vehicle id="v.0.2" eclass="HBEFA3/PC_G_EU4" CO2="15938.14" CO="252.45" HC="1.54" NOx="6.97" PMx="0.37" fuel="5083.45" electricity="0.00" noise="75.88" route="platoon_route" type="vtypeauto" waiting="0.00" lane="E0_0" pos="50.40" speed="20.04" angle="89.86" x="132.42" y="47.86"/>
        <vehicle id="v.1.1" eclass="HBEFA3/PC_G_EU4" CO2="7640.45" CO="87.32" HC="0.59" NOx="2.94" PMx="0.16" fuel="2436.93" electricity="0.00" noise="72.34" route="platoon_route" type="passenger2" waiting="0.00" lane="E0_2" pos="40.50" speed="25.01" angle="89.86" x="122.50" y="54.23"/>
    </timestep>
    <timestep time="0.04">
        <vehicle id="v.0.0" eclass="HBEFA3/PC_G_EU4" CO2="11925.35" CO="169.83" HC="1.07" NOx="5.08" PMx="0.26" fuel="3803.58" electricity="0.00" noise="73.03" route="platoon_route" type="vtypeauto" waiting="0.00" lane="E0_2" pos="10.60" speed="20.05" angle="89.86" x="92.60" y="54.16"/>
        <vehicle id="v.0.1" eclass="HBEFA3/PC_G_EU4" CO2="14296.97" CO="218.64" HC="1.35" NOx="6.20" PMx="0.32" fuel="4560.00" electricity="0.00" noise="74.67" route="platoon_route" type="vtypeauto" waiting="0.00" lane="E0_1" pos="25.60" speed="20.06" angle="89.86" x="107.61" y="50.99"/>
        <vehicle id="v.0.2" eclass="HBEFA3/PC_G_EU4" CO2="12394.54" CO="179.48" HC="1.12" NOx="5.30" PMx="0.27" fuel="3953.23" electricity="0.00" noise="73.35" route="platoon_route" type="vtypeauto" waiting="0.00" lane="E0_0" pos="50.60" speed="20.06" angle="89.86" x="132.62" y="47.86"/>
        <vehicle id="v.1.1" eclass="HBEFA3/PC_G_EU4" CO2="7637.20" CO="87.27" HC="0.59" NOx="2.94" PMx="0.16" fuel="2435.90" electricity="0.00" noise="72.34" route="platoon_route" type="passenger2" waiting="0.00" lane="E0_2" pos="40.75" speed="25.02" angle="89.86" x="122.75" y="54.23"/>
    </timestep>
    <timestep time="0.05">
        <vehicle id="v.0.0" eclass="HBEFA3/PC_G_EU4" CO2="13076.85" CO="193.52" HC="1.20" NOx="5.62" PMx="0.29" fuel="4170.85" electricity="0.00" noise="73.81" route="platoon_route" type="vtypeauto" waiting="0.00" lane="E0_2" pos="10.80" speed="20.07" angle="89.86" x="92.80" y="54.16"/>
        <vehicle id="v.0.1" eclass="HBEFA3/PC_G_EU4" CO2="11845.33" CO="168.15" HC="1.06" NOx="5.04" PMx="0.26" fuel="3778.06" electricity="0.00" noise="72.98" route="platoon_route" type="vtypeauto" waiting="0.00" lane="E0_1" pos="25.80" speed="20.08" angle="89.86" x="107.81" y="50.99"/>
        <vehicle id="v.0.2" eclass="HBEFA3/PC_G_EU4" CO2="11402.06" CO="159.03" HC="1.00" NOx="4.83" PMx="0.25" fuel="3636.68" electricity="0.00" noise="72.69" route="platoon_route" type="vtypeauto" waiting="0.00" lane="E0_0" pos="50.80" speed="20.07" angle="89.86" x="132.82" y="47.86"/>
        <vehicle id="v.1.1" eclass="HBEFA3/PC_G_EU4" CO2="7633.95" CO="87.22" HC="0.59" NOx="2.94" PMx="0.16" fuel="2434.86" electricity="0.00" noise="72.34" route="platoon_route" type="passenger2" waiting="0.00" lane="E0_2" pos="41.00" speed="25.02" angle="89.86" x="123.00" y="54.23"/>
    </timestep>
    <timestep time="0.06">
        <vehicle id="v.0.0" eclass="HBEFA3/PC_G_EU4" CO2="10259.98" CO="135.51" HC="0.87" NOx="4.29" PMx="0.22" fuel="3272.42" electricity="0.00" noise="71.98" route="platoon_route" type="vtypeauto" waiting="0.00" lane="E0_2" pos="11.00" speed="20.08" angle="89.86" x="93.00" y="54.16"/>
        <vehicle id="v.0.1" eclass="HBEFA3/PC_G_EU4" CO2="14400.03" CO="220.73" HC="1.36" NOx="6.24" PMx="0.33" fuel="4592.87" electricity="0.00" noise="74.75" route="platoon_route" type="vtypeauto" waiting="0.00" lane="E0_1" pos="26.00" speed="20.10" angle="89.86" x="108.01" y="51.00"/>
        <vehicle id="v.0.2" eclass="HBEFA3/PC_G_EU4" CO2="12708.86" CO="185.92" HC="1.16" NOx="5.45" PMx="0.28" fuel="4053.48" electricity="0.00" noise="73.56" route="platoon_route" type="vtypeauto" waiting="0.00" lane="E0_0" pos="51.00" speed="20.09" angle="89.86" x="133.02" y="47.86"/>
        <vehicle id="v.1.1" eclass="HBEFA3/PC_G_EU4" CO2="7630.70" CO="87.17" HC="0.59" NOx="2.94" PMx="0.16" fuel="2433.82" electricity="0.00" noise="72.34" route="platoon_route" type="passenger2" waiting="0.00" lane="E0_2" pos="41.25" speed="25.03" angle="89.86" x="123.25" y="54.23"/>
    </timestep>
    <timestep time="0.07">
        <vehicle id="v.0.0" eclass="HBEFA3/PC_G_EU4" CO2="9871.65" CO="127.51" HC="0.82" NOx="4.11" PMx="0.21" fuel="3148.56" electricity="0.00" noise="71.75" route="platoon_route" type="vtypeauto" waiting="0.00" lane="E0_2" pos="11.20" speed="20.09" angle="89.86" x="93.20" y="54.16"/>
        <vehicle id="v.0.1" eclass="HBEFA3/PC_G_EU4" CO2="11824.30" CO="167.69" HC="1.05" NOx="5.03" PMx="0.26" fuel="3771.35" electricity="0.00" noise="72.98" route="platoon_route" type="vtypeauto" waiting="0.00" lane="E0_1" pos="26.20" speed="20.12" angle="89.86" x="108.21" y="51.00"/>
        <vehicle id="v.0.2" eclass="HBEFA3/PC_G_EU4" CO2="16259.52" CO="259.00" HC="1.58" NOx="7.12" PMx="0.37" fuel="5185.95" electricity="0.00" noise="76.11" route="platoon_route" type="vtypeauto" waiting="0.00" lane="E0_0" pos="51.20" speed="20.11" angle="89.86" x="133.22" y="47.86"/>
        <vehicle id="v.1.1" eclass="HBEFA3/PC_G_EU4" CO2="7627.45" CO="87.12" HC="0.59" NOx="2.94" PMx="0.16" fuel="2432.79" electricity="0.00" noise="72.35" route="platoon_route" type="passenger2" waiting="0.00" lane="E0_2" pos="41.50" speed="25.03" angle="89.86" x="123.50" y="54.23"/>
    </timestep>
    <timestep time="0.08">
        <vehicle id="v.0.0" eclass="HBEFA3/PC_G_EU4" CO2="11673.96" CO="164.60" HC="1.04" NOx="4.96" PMx="0.25" fuel="3723.40" electricity="0.00" noise="72.88" route="platoon_route" type="vtypeauto" waiting="0.00" lane="E0_2" pos="11.40" speed="20.11" angle="89.86" x="93.40" y="54.16"/>
        <vehicle id="v.0.1" eclass="HBEFA3/PC_G_EU4" CO2="10961.32" CO="149.91" HC="0.95" NOx="4.62" PMx="0.24" fuel="3496.11" electricity="0.00" noise="72.42" route="platoon_route" type="vtypeauto" waiting="0.00" lane="E0_1" pos="26.41" speed="20.13" angle="89.86" x="108.42" y="51.00"/>
        <vehicle id="v.0.2" eclass="HBEFA3/PC_G_EU4" CO2="13256.95" CO="197.17" HC="1.22" NOx="5.70" PMx="0.30" fuel="4228.29" electricity="0.00" noise="73.94" route="platoon_route" type="vtypeauto" waiting="0.00" lane="E0_0" pos="51.41" speed="20.13" angle="89.86" x="133.43" y="47.86"/>
        <vehicle id="v.1.1" eclass="HBEFA3/PC_G_EU4" CO2="7624.19" CO="87.07" HC="0.59" NOx="2.93" PMx="0.16" fuel="2431.75" electricity="0.00" noise="72.35" route="platoon_route" type="passenger2" waiting="0.00" lane="E0_2" pos="41.75" speed="25.04" angle="89.86" x="123.75" y="54.23"/>
    </timestep>
    <timestep time="0.09">
        <vehicle id="v.0.0" eclass="HBEFA3/PC_G_EU4" CO2="12078.05" CO="172.90" HC="1.08" NOx="5.15" PMx="0.27" fuel="3852.29" electricity="0.00" noise="73.14" route="platoon_route" type="vtypeauto" waiting="0.00" lane="E0_2" pos="11.61" speed="20.13" angle="89.86" x="93.61" y="54.16"/>
        <vehicle id="v.0.1" eclass="HBEFA3/PC_G_EU4" CO2="11741.85" CO="165.96" HC="1.04" NOx="4.99" PMx="0.26" fuel="3745.06" electricity="0.00" noise="72.92" route="platoon_route" type="vtypeauto" waiting="0.00" lane="E0_1" pos="26.61" speed="20.15" angle="89.86" x="108.62" y="51.00"/>
        <vehicle id="v.0.2" eclass="HBEFA3/PC_G_EU4" CO2="12611.91" CO="183.87" HC="1.15" NOx="5.40" PMx="0.28" fuel="4022.56" electricity="0.00" noise="73.50" route="platoon_route" type="vtypeauto" waiting="0.00" lane="E0_0" pos="51.61" speed="20.15" angle="89.86" x="133.63" y="47.86"/>
        <vehicle id="v.1.1" eclass="HBEFA3/PC_G_EU4" CO2="7620.94" CO="87.02" HC="0.59" NOx="2.93" PMx="0.16" fuel="2430.71" electricity="0.00" noise="72.35" route="platoon_route" type="passenger2" waiting="0.00" lane="E0_2" pos="42.00" speed="25.04" angle="89.86" x="124.00" y="54.24"/>
    </timestep>
    <timestep time="0.10">
        <vehicle id="v.0.0" eclass="HBEFA3/PC_G_EU4" CO2="11583.53" CO="162.71" HC="1.02" NOx="4.91" PMx="0.25" fuel="3694.56" electricity="0.00" noise="72.82" route="platoon_route" type="vtypeauto" waiting="0.00" lane="E0_2" pos="11.81" speed="20.14" angle="89.86" x="93.81" y="54.16"/>
        <vehicle id="v.0.1" eclass="HBEFA3/PC_G_EU4" CO2="15122.83" CO="235.55" HC="1.44" NOx="6.58" PMx="0.34" fuel="4823.41" electricity="0.00" noise="75.26" route="platoon_route" type="vtypeauto" waiting="0.00" lane="E0_1" pos="26.81" speed="20.17" angle="89.86" x="108.82" y="51.00"/>
        <vehicle id="v.0.2" eclass="HBEFA3/PC_G_EU4" CO2="15954.35" CO="252.67" HC="1.54" NOx="6.98" PMx="0.37" fuel="5088.62" electricity="0.00" noise="75.87" route="platoon_route" type="vtypeauto" waiting="0.00" lane="E0_0" pos="51.81" speed="20.18" angle="89.86" x="133.83" y="47.86"/>
        <vehicle id="v.1.1" eclass="HBEFA3/PC_G_EU4" CO2="7617.69" CO="86.97" HC="0.59" NOx="2.93" PMx="0.16" fuel="2429.68" electricity="0.00" noise="72.35" route="platoon_route" type="passenger2" waiting="0.00" lane="E0_2" pos="42.25" speed="25.05" angle="89.86" x="124.25" y="54.24"/>
    </timestep>
    <timestep time="0.11">
        <vehicle id="v.0.0" eclass="HBEFA3/PC_G_EU4" CO2="16015.21" CO="253.93" HC="1.55" NOx="7.01" PMx="0.37" fuel="5108.03" electricity="0.00" noise="75.92" route="platoon_route" type="vtypeauto" waiting="0.00" lane="E0_2" pos="12.01" speed="20.17" angle="89.86" x="94.01" y="54.16"/>
        <vehicle id="v.0.1" eclass="HBEFA3/PC_G_EU4" CO2="15321.13" CO="239.62" HC="1.47" NOx="6.68" PMx="0.35" fuel="4886.66" electricity="0.00" noise="75.41" route="platoon_route" type="vtypeauto" waiting="0.00" lane="E0_1" pos="27.01" speed="20.19" angle="89.86" x="109.02" y="51.00"/>
        <vehicle id="v.0.2" eclass="HBEFA3/PC_G_EU4" CO2="14249.28" CO="217.55" HC="1.34" NOx="6.17" PMx="0.32" fuel="4544.79" electricity="0.00" noise="74.64" route="platoon_route" type="vtypeauto" waiting="0.00" lane="E0_0" pos="52.01" speed="20.20" angle="89.86" x="134.03" y="47.86"/>
        <vehicle id="v.1.1" eclass="HBEFA3/PC_G_EU4" CO2="7614.44" CO="86.92" HC="0.59" NOx="2.93" PMx="0.16" fuel="2428.64" electricity="0.00" noise="72.35" route="platoon_route" type="passenger2" waiting="0.00" lane="E0_2" pos="42.50" speed="25.05" angle="89.86" x="124.50" y="54.24"/>
    </timestep>
    <timestep time="0.12">
        <vehicle id="v.0.0" eclass="HBEFA3/PC_G_EU4" CO2="14563.00" CO="224.01" HC="1.38" NOx="6.32" PMx="0.33" fuel="4644.85" electricity="0.00" noise="74.86" route="platoon_route" type="vtypeauto" waiting="0.00" lane="E0_2" pos="12.21" speed="20.19" angle="89.86" x="94.21" y="54.16"/>
        <vehicle id="v.0.1" eclass="HBEFA3/PC_G_EU4" CO2="15584.60" CO="245.02" HC="1.50" NOx="6.80" PMx="0.36" fuel="4970.69" electricity="0.00" noise="75.60" route="platoon_route" type="vtypeauto" waiting="0.00" lane="E0_1" pos="27.21" speed="20.22" angle="89.86" x="109.22" y="51.00"/>
        <vehicle id="v.0.2" eclass="HBEFA3/PC_G_EU4" CO2="16084.19" CO="255.30" HC="1.56" NOx="7.04" PMx="0.37" fuel="5130.03" electricity="0.00" noise="75.97" route="platoon_route" type="vtypeauto" waiting="0.00" lane="E0_0" pos="52.21" speed="20.22" angle="89.86" x="134.23" y="47.86"/>
        <vehicle id="v.1.1" eclass="HBEFA3/PC_G_EU4" CO2="7611.19" CO="86.87" HC="0.58" NOx="2.93" PMx="0.16" fuel="2427.60" electricity="0.00" noise="72.35" route="platoon_route" type="passenger2" waiting="0.00" lane="E0_2" pos="42.75" speed="25.06" angle="89.86" x="124.75" y="54.24"/>
    </timestep>
    <timestep time="0.13">
        <vehicle id="v.0.0" eclass="HBEFA3/PC_G_EU4" CO2="12536.28" CO="182.27" HC="1.14" NOx="5.36" PMx="0.28" fuel="3998.44" electricity="0.00" noise="73.45" route="platoon_route" type="vtypeauto" waiting="0.00" lane="E0_2" pos="12.41" speed="20.21" angle="89.86" x="94.41" y="54.16"/>
        <vehicle id="v.0.1" eclass="HBEFA3/PC_G_EU4" CO2="10887.79" CO="148.31" HC="0.94" NOx="4.58" PMx="0.23" fuel="3472.66" electricity="0.00" noise="72.39" route="platoon_route" type="vtypeauto" waiting="0.00" lane="E0_1" pos="27.42" speed="20.23" angle="89.86" x="109.43" y="51.00"/>
        <vehicle id="v.0.2" eclass="HBEFA3/PC_G_EU4" CO2="14381.03" CO="220.22" HC="1.36" NOx="6.23" PMx="0.33" fuel="4586.82" electricity="0.00" noise="74.73" route="platoon_route" type="vtypeauto" waiting="0.00" lane="E0_0" pos="52.42" speed="20.24" angle="89.86" x="134.43" y="47.86"/>
        <vehicle id="v.1.1" eclass="HBEFA3/PC_G_EU4" CO2="7607.95" CO="86.82" HC="0.58" NOx="2.93" PMx="0.16" fuel="2426.57" electricity="0.00" noise="72.35" route="platoon_route" type="passenger2" waiting="0.00" lane="E0_2" pos="43.00" speed="25.06" angle="89.86" x="125.00" y="54.24"/>
    </timestep>
    <timestep time="0.14">
        <vehicle id="v.0.0" eclass="HBEFA3/PC_G_EU4" CO2="16046.50" CO="254.52" HC="1.55" NOx="7.02" PMx="0.37" fuel="5118.01" electricity="0.00" noise="75.94" route="platoon_route" type="vtypeauto" waiting="0.00" lane="E0_2" pos="12.62" speed="20.23" angle="89.86" x="94.62" y="54.16"/>
        <vehicle id="v.0.1" eclass="HBEFA3/PC_G_EU4" CO2="15884.91" CO="251.18" HC="1.53" NOx="6.94" PMx="0.36" fuel="5066.47" electricity="0.00" noise="75.81" route="platoon_route" type="vtypeauto" waiting="0.00" lane="E0_1" pos="27.62" speed="20.26" angle="89.86" x="109.63" y="51.00"/>
        <vehicle id="v.0.2" eclass="HBEFA3/PC_G_EU4" CO2="10219.78" CO="134.54" HC="0.86" NOx="4.27" PMx="0.22" fuel="3259.60" electricity="0.00" noise="71.99" route="platoon_route" type="vtypeauto" waiting="0.00" lane="E0_0" pos="52.62" speed="20.26" angle="89.86" x="134.64" y="47.86"/>
        <vehicle id="v.1.1" eclass="HBEFA3/PC_G_EU4" CO2="7604.70" CO="86.77" HC="0.58" NOx="2.92" PMx="0.16" fuel="2425.53" electricity="0.00" noise="72.35" route="platoon_route" type="passenger2" waiting="0.00" lane="E0_2" pos="43.25" speed="25.07" angle="89.86" x="125.25" y="54.24"/>
    </timestep>
    <timestep time="0.15">
        <vehicle id="v.0.0" eclass="HBEFA3/PC_G_EU4" CO2="9928.97" CO="128.56" HC="0.83" NOx="4.13" PMx="0.21" fuel="3166.84" electricity="0.00" noise="71.82" route="platoon_route" type="vtypeauto" waiting="0.00" lane="E0_2" pos="12.82" speed="20.24" angle="89.86" x="94.82" y="54.16"/>
        <vehicle id="v.0.1" eclass="HBEFA3/PC_G_EU4" CO2="10825.23" CO="146.99" HC="0.93" NOx="4.55" PMx="0.23" fuel="3452.70" electricity="0.00" noise="72.36" route="platoon_route" type="vtypeauto" waiting="0.00" lane="E0_1" pos="27.82" speed="20.27" angle="89.86" x="109.83" y="51.00"/>
        <vehicle id="v.0.2" eclass="HBEFA3/PC_G_EU4" CO2="10566.77" CO="141.67" HC="0.90" NOx="4.43" PMx="0.23" fuel="3370.27" electricity="0.00" noise="72.20" route="platoon_route" type="vtypeauto" waiting="0.00" lane="E0_0" pos="52.82" speed="20.27" angle="89.86" x="134.84" y="47.86"/>
        <vehicle id="v.1.1" eclass="HBEFA3/PC_G_EU4" CO2="7601.45" CO="86.72" HC="0.58" NOx="2.92" PMx="0.16" fuel="2424.49" electricity="0.00" noise="72.35" route="platoon_route" type="passenger2" waiting="0.00" lane="E0_2" pos="43.51" speed="25.07" angle="89.86" x="125.51" y="54.24"/>
    </timestep>
    <timestep time="0.16">
        <vehicle id="v.0.0" eclass="HBEFA3/PC_G_EU4" CO2="14499.31" CO="222.64" HC="1.37" NOx="6.29" PMx="0.33" fuel="4624.54" electricity="0.00" noise="74.81" route="platoon_route" type="vtypeauto" waiting="0.00" lane="E0_2" pos="13.02" speed="20.27" angle="89.86" x="95.02" y="54.16"/>
        <vehicle id="v.0.1" eclass="HBEFA3/PC_G_EU4" CO2="11783.25" CO="166.71" HC="1.05" NOx="5.01" PMx="0.26" fuel="3758.26" electricity="0.00" noise="72.97" route="platoon_route" type="vtypeauto" waiting="0.00" lane="E0_1" pos="28.02" speed="20.29" angle="89.86" x="110.03" y="51.00"/>
        <vehicle id="v.0.2" eclass="HBEFA3/PC_G_EU4" CO2="12846.26" CO="188.59" HC="1.17" NOx="5.51" PMx="0.29" fuel="4097.31" electricity="0.00" noise="73.67" route="platoon_route" type="vtypeauto" waiting="0.00" lane="E0_0" pos="53.02" speed="20.29" angle="89.86" x="135.04" y="47.86"/>
        <vehicle id="v.1.1" eclass="HBEFA3/PC_G_EU4" CO2="7598.20" CO="86.67" HC="0.58" NOx="2.92" PMx="0.16" fuel="2423.46" electricity="0.00" noise="72.35" route="platoon_route" type="passenger2" waiting="0.00" lane="E0_2" pos="43.76" speed="25.08" angle="89.86" x="125.76" y="54.24"/>
    </timestep>
    <timestep time="0.17">
        <vehicle id="v.0.0" eclass="HBEFA3/PC_G_EU4" CO2="14289.35" CO="218.30" HC="1.35" NOx="6.19" PMx="0.32" fuel="4557.57" electricity="0.00" noise="74.66" route="platoon_route" type="vtypeauto" waiting="0.00" lane="E0_2" pos="13.22" speed="20.29" angle="89.86" x="95.22" y="54.16"/>
        <vehicle id="v.0.1" eclass="HBEFA3/PC_G_EU4" CO2="12461.74" CO="180.66" HC="1.13" NOx="5.33" PMx="0.28" fuel="3974.66" electricity="0.00" noise="73.41" route="platoon_route" type="vtypeauto" waiting="0.00" lane="E0_1" pos="28.23" speed="20.30" angle="89.86" x="110.24" y="51.00"/>
        <vehicle id="v.0.2" eclass="HBEFA3/PC_G_EU4" CO2="16250.57" CO="258.66" HC="1.58" NOx="7.11" PMx="0.37" fuel="5183.10" electricity="0.00" noise="76.08" route="platoon_route" type="vtypeauto" waiting="0.00" lane="E0_0" pos="53.23" speed="20.31" angle="89.86" x="135.25" y="47.86"/>
        <vehicle id="v.1.1" eclass="HBEFA3/PC_G_EU4" CO2="7594.95" CO="86.61" HC="0.58" NOx="2.92" PMx="0.16" fuel="2422.42" electricity="0.00" noise="72.35" route="platoon_route" type="passenger2" waiting="0.00" lane="E0_2" pos="44.01" speed="25.08" angle="89.86" x="126.01" y="54.24"/>
    </timestep>
    <timestep time="0.18">
        <vehicle id="v.0.0" eclass="HBEFA3/PC_G_EU4" CO2="11582.79" CO="162.57" HC="1.02" NOx="4.91" PMx="0.25" fuel="3694.32" electricity="0.00" noise="72.84" route="platoon_route" type="vtypeauto" waiting="0.00" lane="E0_2" pos="13.43" speed="20.30" angle="89.86" x="95.43" y="54.16"/>
        <vehicle id="v.0.1" eclass="HBEFA3/PC_G_EU4" CO2="15482.49" CO="242.84" HC="1.49" NOx="6.75" PMx="0.35" fuel="4938.12" electricity="0.00" noise="75.51" route="platoon_route" type="vtypeauto" waiting="0.00" lane="E0_1" pos="28.43" speed="20.33" angle="89.86" x="110.44" y="51.00"/>
        <vehicle id="v.0.2" eclass="HBEFA3/PC_G_EU4" CO2="11414.39" CO="159.08" HC="1.00" NOx="4.83" PMx="0.25" fuel="3640.61" electricity="0.00" noise="72.74" route="platoon_route" type="vtypeauto" waiting="0.00" lane="E0_0" pos="53.43" speed="20.33" angle="89.86" x="135.45" y="47.86"/>
        <vehicle id="v.1.1" eclass="HBEFA3/PC_G_EU4" CO2="7591.70" CO="86.56" HC="0.58" NOx="2.92" PMx="0.16" fuel="2421.39" electricity="0.00" noise="72.36" route="platoon_route" type="passenger2" waiting="0.00" lane="E0_2" pos="44.26" speed="25.09" angle="89.86" x="126.26" y="54.24"/>
    </timestep>
    <timestep time="0.19">
        <vehicle id="v.0.0" eclass="HBEFA3/PC_G_EU4" CO2="15907.89" CO="251.60" HC="1.54" NOx="6.95" PMx="0.37" fuel="5073.80" electricity="0.00" noise="75.82" route="platoon_route" type="vtypeauto" waiting="0.00" lane="E0_2" pos="13.63" speed="20.33" angle="89.86" x="95.63" y="54.16"/>
        <vehicle id="v.0.1" eclass="HBEFA3/PC_G_EU4" CO2="14333.29" CO="219.16" HC="1.35" NOx="6.21" PMx="0.32" fuel="4571.59" electricity="0.00" noise="74.69" route="platoon_route" type="vtypeauto" waiting="0.00" lane="E0_1" pos="28.63" speed="20.35" angle="89.86" x="110.64" y="51.00"/>
        <vehicle id="v.0.2" eclass="HBEFA3/PC_G_EU4" CO2="10148.99" CO="133.02" HC="0.85" NOx="4.23" PMx="0.22" fuel="3237.02" electricity="0.00" noise="71.97" route="platoon_route" type="vtypeauto" waiting="0.00" lane="E0_0" pos="53.63" speed="20.34" angle="89.86" x="135.65" y="47.86"/>
        <vehicle id="v.1.1" eclass="HBEFA3/PC_G_EU4" CO2="7588.45" CO="86.51" HC="0.58" NOx="2.92" PMx="0.16" fuel="2420.35" electricity="0.00" noise="72.36" route="platoon_route" type="passenger2" waiting="0.00" lane="E0_2" pos="44.51" speed="25.09" angle="89.86" x="126.51" y="54.24"/>
    </timestep>
    <timestep time="0.20">
        <vehicle id="v.0.0" eclass="HBEFA3/PC_G_EU4" CO2="11762.52" CO="166.24" HC="1.05" NOx="4.99" PMx="0.26" fuel="3751.65" electricity="0.00" noise="72.96" route="platoon_route" type="vtypeauto" waiting="0.00" lane="E0_2" pos="13.83" speed="20.34" angle="89.86" x="95.83" y="54.16"/>
        <vehicle id="v.0.1" eclass="HBEFA3/PC_G_EU4" CO2="10676.12" CO="143.86" HC="0.92" NOx="4.48" PMx="0.23" fuel="3405.15" electricity="0.00" noise="72.29" route="platoon_route" type="vtypeauto" waiting="0.00" lane="E0_1" pos="28.84" speed="20.36" angle="89.86" x="110.85" y="51.00"/>
        <vehicle id="v.0.2" eclass="HBEFA3/PC_G_EU4" CO2="11958.73" CO="170.27" HC="1.07" NOx="5.09" PMx="0.26" fuel="3814.23" electricity="0.00" noise="73.09" route="platoon_route" type="vtypeauto" waiting="0.00" lane="E0_0" pos="53.84" speed="20.36" angle="89.86" x="135.86" y="47.87"/>
        <vehicle id="v.1.1" eclass="HBEFA3/PC_G_EU4" CO2="7585.21" CO="86.46" HC="0.58" NOx="2.91" PMx="0.16" fuel="2419.31" electricity="0.00" noise="72.36" route="platoon_route" type="passenger2" waiting="0.00" lane="E0_2" pos="44.76" speed="25.10" angle="89.86" x="126.76" y="54.24"/>
    </timestep>
    <timestep time="0.21">
        <vehicle id="v.0.0" eclass="HBEFA3/PC_G_EU4" CO2="15888.75" CO="251.18" HC="1.53" NOx="6.94" PMx="0.36" fuel="5067.70" electricity="0.00" noise="75.81" route="platoon_route" type="vtypeauto" waiting="0.00" lane="E0_2" pos="14.04" speed="20.37" angle="89.86" x="96.04" y="54.17"/>
        <vehicle id="v.0.1" eclass="HBEFA3/PC_G_EU4" CO2="10654.09" CO="143.40" HC="0.91" NOx="4.47" PMx="0.23" fuel="3398.12" electricity="0.00" noise="72.28" route="platoon_route" type="vtypeauto" waiting="0.00" lane="E0_1" pos="29.04" speed="20.38" angle="89.86" x="111.05" y="51.00"/>
        <vehicle id="v.0.2" eclass="HBEFA3/PC_G_EU4" CO2="15663.44" CO="246.53" HC="1.51" NOx="6.83" PMx="0.36" fuel="4995.84" electricity="0.00" noise="75.64" route="platoon_route" type="vtypeauto" waiting="0.00" lane="E0_0" pos="54.04" speed="20.38" angle="89.86" x="136.06" y="47.87"/>
        <vehicle id="v.1.1" eclass="HBEFA3/PC_G_EU4" CO2="7581.96" CO="86.41" HC="0.58" NOx="2.91" PMx="0.16" fuel="2418.28" electricity="0.00" noise="72.36" route="platoon_route" type="passenger2" waiting="0.00" lane="E0_2" pos="45.01" speed="25.10" angle="89.86" x="127.01" y="54.24"/>
    </timestep>
    <timestep time="0.22">
        <vehicle id="v.0.0" eclass="HBEFA3/PC_G_EU4" CO2="10772.94" CO="145.84" HC="0.93" NOx="4.53" PMx="0.23" fuel="3436.03" electricity="0.00" noise="72.35" route="platoon_route" type="vtypeauto" waiting="0.00" lane="E0_2" pos="14.24" speed="20.38" angle="89.86" x="96.24" y="54.17"/>
        <vehicle id="v.0.1" eclass="HBEFA3/PC_G_EU4" CO2="14692.53" CO="226.53" HC="1.39" NOx="6.38" PMx="0.33" fuel="4686.17" electricity="0.00" noise="74.94" route="platoon_route" type="vtypeauto" waiting="0.00" lane="E0_1" pos="29.24" speed="20.40" angle="89.86" x="111.25" y="51.00"/>
        <vehicle id="v.0.2" eclass="HBEFA3/PC_G_EU4" CO2="13805.01" CO="208.25" HC="1.29" NOx="5.96" PMx="0.31" fuel="4403.09" electricity="0.00" noise="74.33" route="platoon_route" type="vtypeauto" waiting="0.00" lane="E0_0" pos="54.24" speed="20.40" angle="89.86" x="136.26" y="47.87"/>
        <vehicle id="v.1.1" eclass="HBEFA3/PC_G_EU4" CO2="7578.71" CO="86.36" HC="0.58" NOx="2.91" PMx="0.16" fuel="2417.24" electricity="0.00" noise="72.36" route="platoon_route" type="passenger2" waiting="0.00" lane="E0_2" pos="45.26" speed="25.11" angle="89.86" x="127.26" y="54.24"/>
    </timestep>
    <timestep time="0.23">
        <vehicle id="v.0.0" eclass="HBEFA3/PC_G_EU4" CO2="10915.50" CO="148.77" HC="0.95" NOx="4.59" PMx="0.24" fuel="3481.49" electricity="0.00" noise="72.44" route="platoon_route" type="vtypeauto" waiting="0.00" lane="E0_2" pos="14.44" speed="20.39" angle="89.86" x="96.44" y="54.17"/>
        <vehicle id="v.0.1" eclass="HBEFA3/PC_G_EU4" CO2="11111.39" CO="152.79" HC="0.97" NOx="4.69" PMx="0.24" fuel="3543.97" electricity="0.00" noise="72.56" route="platoon_route" type="vtypeauto" waiting="0.00" lane="E0_1" pos="29.45" speed="20.41" angle="89.86" x="111.46" y="51.00"/>
        <vehicle id="v.0.2" eclass="HBEFA3/PC_G_EU4" CO2="14800.37" CO="228.73" HC="1.41" NOx="6.43" PMx="0.34" fuel="4720.56" electricity="0.00" noise="75.02" route="platoon_route" type="vtypeauto" waiting="0.00" lane="E0_0" pos="54.45" speed="20.42" angle="89.86" x="136.47" y="47.87"/>
        <vehicle id="v.1.1" eclass="HBEFA3/PC_G_EU4" CO2="7575.47" CO="86.31" HC="0.58" NOx="2.91" PMx="0.16" fuel="2416.21" electricity="0.00" noise="72.36" route="platoon_route" type="passenger2" waiting="0.00" lane="E0_2" pos="45.51" speed="25.11" angle="89.86" x="127.51" y="54.24"/>
    </timestep>
    <timestep time="0.24">
        <vehicle id="v.0.0" eclass="HBEFA3/PC_G_EU4" CO2="11096.07" CO="152.48" HC="0.97" NOx="4.68" PMx="0.24" fuel="3539.09" electricity="0.00" noise="72.55" route="platoon_route" type="vtypeauto" waiting="0.00" lane="E0_2" pos="14.65" speed="20.41" angle="89.86" x="96.65" y="54.17"/>
        <vehicle id="v.0.1" eclass="HBEFA3/PC_G_EU4" CO2="11588.47" CO="162.60" HC="1.02" NOx="4.91" PMx="0.25" fuel="3696.13" electricity="0.00" noise="72.86" route="platoon_route" type="vtypeauto" waiting="0.00" lane="E0_1" pos="29.65" speed="20.43" angle="89.86" x="111.66" y="51.00"/>
        <vehicle id="v.0.2" eclass="HBEFA3/PC_G_EU4" CO2="15458.04" CO="242.26" HC="1.48" NOx="6.74" PMx="0.35" fuel="4930.32" electricity="0.00" noise="75.49" route="platoon_route" type="vtypeauto" waiting="0.00" lane="E0_0" pos="54.65" speed="20.45" angle="89.86" x="136.67" y="47.87"/>
        <vehicle id="v.1.1" eclass="HBEFA3/PC_G_EU4" CO2="7572.22" CO="86.26" HC="0.58" NOx="2.91" PMx="0.16" fuel="2415.17" electricity="0.00" noise="72.36" route="platoon_route" type="passenger2" waiting="0.00" lane="E0_2" pos="45.76" speed="25.12" angle="89.86" x="127.76" y="54.25"/>
    </timestep>
    <timestep time="0.25">