<?xml version="1.0" encoding="UTF-8"?>

<!-- generated on 2024-06-12 19:05:52 by Eclipse SUMO GUI Version 1.18.0
<configuration xmlns:xsi="http://www.w3.org/2001/XMLSchema-instance" xsi:noNamespaceSchemaLocation="http://sumo.dlr.de/xsd/sumoConfiguration.xsd">

    <input>
        <net-file value="cfg/freeway.net.xml"/>
        <route-files value="cfg/freeway.rou.xml"/>
        <additional-files value="cfg/detectorE1.add.xml"/>
    </input>

    <time>
        <begin value="0"/>
        <end value="720000"/>
        <step-length value="0.01"/>
    </time>

    <processing>
        <collision.action value="remove"/>
        <collision.stoptime value="100000"/>
        <lanechange.duration value="2"/>
    </processing>

    <traci_server>
        <remote-port value="52665"/>
    </traci_server>

    <gui_only>
        <gui-settings-file value="cfg/freeway.gui.xml"/>
        <start value="true"/>
    </gui_only>

</configuration>
-->

<detector xmlns:xsi="http://www.w3.org/2001/XMLSchema-instance" xsi:noNamespaceSchemaLocation="http://sumo.dlr.de/xsd/det_e1_file.xsd">
    <interval begin="0.00" end="3600.00" id="E1_0" nVehContrib="966" flow="966.00" occupancy="13.72" speed="7.83" harmonicMeanSpeed="7.83" length="4.00" nVehEntered="966"/>
</detector>
