<?xml version="1.0" encoding="UTF-8"?>

<!-- generated on 2024-02-28 16:00:11 by Eclipse SUMO GUI Version 1.18.0
<configuration xmlns:xsi="http://www.w3.org/2001/XMLSchema-instance" xsi:noNamespaceSchemaLocation="http://sumo.dlr.de/xsd/sumoConfiguration.xsd">

    <input>
        <net-file value="cfg/freeway.net.xml"/>
        <route-files value="cfg/freeway.rou.xml"/>
        <additional-files value="cfg/parkingarea.add.xml,cfg/ detectorE1.add.xml,cfg/ detectorE2.add.xml,cfg/ detectorE3.add.xml,cfg/ edgedata.add.xml"/>
    </input>

    <output>
        <fcd-output value="cfg/fcd.xml"/>
    </output>

    <time>
        <begin value="0"/>
        <end value="81600"/>
        <step-length value="0.01"/>
    </time>

    <processing>
        <collision.action value="remove"/>
        <collision.stoptime value="10000"/>
        <lanechange.duration value="2"/>
    </processing>

    <traci_server>
        <remote-port value="51580"/>
    </traci_server>

    <gui_only>
        <gui-settings-file value="cfg/freeway.gui.xml"/>
        <start value="true"/>
    </gui_only>

</configuration>
-->

<meandata xmlns:xsi="http://www.w3.org/2001/XMLSchema-instance" xsi:noNamespaceSchemaLocation="http://sumo.dlr.de/xsd/meandata_file.xsd">
    <interval begin="0.00" end="60.00" id="edge_data">
        <edge id="E0">
            <lane id="E0_0" sampledSeconds="22.21" traveltime="19.44" overlapTraveltime="19.58" density="0.74" laneDensity="0.74" occupancy="0.30" waitingTime="0.00" timeLoss="3.50" speed="25.74" speedRelative="0.64" departed="2" arrived="0" entered="0" left="1" laneChangedFrom="1" laneChangedTo="0"/>
            <lane id="E0_1" sampledSeconds="26.01" traveltime="19.46" overlapTraveltime="19.60" density="0.87" laneDensity="0.87" occupancy="0.35" waitingTime="0.00" timeLoss="4.11" speed="25.72" speedRelative="0.64" departed="2" arrived="0" entered="0" left="1" laneChangedFrom="2" laneChangedTo="1"/>
            <lane id="E0_2" sampledSeconds="25.45" traveltime="17.42" overlapTraveltime="17.54" density="0.85" laneDensity="0.85" occupancy="0.34" waitingTime="0.00" timeLoss="1.52" speed="28.73" speedRelative="0.72" departed="1" arrived="0" entered="0" left="3" laneChangedFrom="0" laneChangedTo="2"/>
        </edge>
        <edge id="E1">
            <lane id="E1_0" sampledSeconds="20.16" traveltime="17.10" overlapTraveltime="17.25" density="0.67" laneDensity="0.67" occupancy="0.27" waitingTime="0.00" timeLoss="0.88" speed="29.22" speedRelative="0.73" departed="0" arrived="0" entered="1" left="2" laneChangedFrom="0" laneChangedTo="1"/>
            <lane id="E1_1" sampledSeconds="14.95" traveltime="17.85" overlapTraveltime="17.99" density="0.50" laneDensity="0.50" occupancy="0.20" waitingTime="0.00" timeLoss="1.24" speed="28.01" speedRelative="0.70" departed="0" arrived="0" entered="1" left="0" laneChangedFrom="1" laneChangedTo="0"/>
            <lane id="E1_2" sampledSeconds="47.80" traveltime="15.81" overlapTraveltime="15.93" density="1.59" laneDensity="1.59" occupancy="0.63" waitingTime="0.00" timeLoss="1.04" speed="31.63" speedRelative="0.79" departed="0" arrived="0" entered="3" left="3" laneChangedFrom="0" laneChangedTo="0"/>
        </edge>
        <edge id="E2">
            <lane id="E2_0" sampledSeconds="21.26" traveltime="834.08" overlapTraveltime="834.21" density="0.01" laneDensity="0.01" occupancy="0.01" waitingTime="0.00" timeLoss="0.32" speed="30.09" speedRelative="0.75" departed="0" arrived="0" entered="2" left="0" laneChangedFrom="0" laneChangedTo="0"/>
            <lane id="E2_1" sampledSeconds="0.00" departed="0" arrived="0" entered="0" left="0" laneChangedFrom="0" laneChangedTo="0"/>
            <lane id="E2_2" sampledSeconds="40.83" traveltime="820.86" overlapTraveltime="820.99" density="0.03" laneDensity="0.03" occupancy="0.01" waitingTime="0.00" timeLoss="2.21" speed="30.58" speedRelative="0.76" departed="0" arrived="0" entered="3" left="0" laneChangedFrom="0" laneChangedTo="0"/>
        </edge>
    </interval>
</meandata>
