<?xml version="1.0" encoding="UTF-8"?>

<!-- generated on 2023-08-30 17:57:48 by Eclipse SUMO GUI Version 1.18.0
<configuration xmlns:xsi="http://www.w3.org/2001/XMLSchema-instance" xsi:noNamespaceSchemaLocation="http://sumo.dlr.de/xsd/sumoConfiguration.xsd">

    <input>
        <net-file value="cfg/highway.net.xml"/>
        <route-files value="cfg/highway.rou.xml"/>
        <additional-files value="cfg/detectorE2.add.xml"/>
    </input>

    <time>
        <begin value="0"/>
        <end value="81600"/>
        <step-length value="0.01"/>
    </time>

    <processing>
        <collision.action value="remove"/>
        <collision.stoptime value="10000"/>
        <lanechange.duration value="2"/>
    </processing>

    <traci_server>
        <remote-port value="54649"/>
    </traci_server>

    <gui_only>
        <gui-settings-file value="cfg/highway.gui.xml"/>
        <start value="true"/>
    </gui_only>

</configuration>
-->

<detector xmlns:xsi="http://www.w3.org/2001/XMLSchema-instance" xsi:noNamespaceSchemaLocation="http://sumo.dlr.de/xsd/det_e2_file.xsd">
   <interval begin="0.00" end="4.99" id="lane_index_1" sampledSeconds="24.58" nVehEntered="5" nVehLeft="0" nVehSeen="5" meanSpeed="22.86" meanTimeLoss="1.52" meanOccupancy="0.49" maxOccupancy="0.50" meanMaxJamLengthInVehicles="0.00" meanMaxJamLengthInMeters="0.00" maxJamLengthInVehicles="0" maxJamLengthInMeters="0.00" jamLengthInVehiclesSum="0" jamLengthInMetersSum="0.00" meanHaltingDuration="0.00" maxHaltingDuration="0.00" haltingDurationSum="0.00" meanIntervalHaltingDuration="0.00" maxIntervalHaltingDuration="0.00" intervalHaltingDurationSum="0.00" startedHalts="0.00" meanVehicleNumber="4.93" maxVehicleNumber="5" />
   <interval begin="0.00" end="4.99" id="lane_index_0" sampledSeconds="24.90" nVehEntered="5" nVehLeft="0" nVehSeen="5" meanSpeed="22.83" meanTimeLoss="1.57" meanOccupancy="0.50" maxOccupancy="0.50" meanMaxJamLengthInVehicles="0.00" meanMaxJamLengthInMeters="0.00" maxJamLengthInVehicles="0" maxJamLengthInMeters="0.00" jamLengthInVehiclesSum="0" jamLengthInMetersSum="0.00" meanHaltingDuration="0.00" maxHaltingDuration="0.00" haltingDurationSum="0.00" meanIntervalHaltingDuration="0.00" maxIntervalHaltingDuration="0.00" intervalHaltingDurationSum="0.00" startedHalts="0.00" meanVehicleNumber="4.99" maxVehicleNumber="5" />
   <interval begin="0.00" end="4.99" id="lane_index_2" sampledSeconds="24.57" nVehEntered="5" nVehLeft="0" nVehSeen="5" meanSpeed="21.80" meanTimeLoss="1.70" meanOccupancy="0.49" maxOccupancy="0.50" meanMaxJamLengthInVehicles="0.00" meanMaxJamLengthInMeters="0.00" maxJamLengthInVehicles="0" maxJamLengthInMeters="0.00" jamLengthInVehiclesSum="0" jamLengthInMetersSum="0.00" meanHaltingDuration="0.00" maxHaltingDuration="0.00" haltingDurationSum="0.00" meanIntervalHaltingDuration="0.00" maxIntervalHaltingDuration="0.00" intervalHaltingDurationSum="0.00" startedHalts="0.00" meanVehicleNumber="4.92" maxVehicleNumber="5" />
</detector>
