<?xml version="1.0" encoding="UTF-8"?>

<!-- generated on 2025-03-10 18:32:04 by Eclipse SUMO GUI Version 1.18.0
<configuration xmlns:xsi="http://www.w3.org/2001/XMLSchema-instance" xsi:noNamespaceSchemaLocation="http://sumo.dlr.de/xsd/sumoConfiguration.xsd">

    <input>
        <net-file value="cfg/freeway.net.xml"/>
        <route-files value="cfg/freeway.rou.xml"/>
        <additional-files value="cfg/parkingarea.add.xml,cfg/ detectorE1.add.xml,cfg/ emissions.add.xml"/>
    </input>

    <time>
        <begin value="0"/>
        <end value="720000"/>
        <step-length value="0.01"/>
    </time>

    <processing>
        <collision.action value="remove"/>
        <collision.stoptime value="100000"/>
        <lanechange.duration value="2"/>
    </processing>

    <traci_server>
        <remote-port value="1147"/>
    </traci_server>

    <gui_only>
        <gui-settings-file value="cfg/freeway.gui.xml"/>
        <start value="true"/>
    </gui_only>

</configuration>
-->

<detector xmlns:xsi="http://www.w3.org/2001/XMLSchema-instance" xsi:noNamespaceSchemaLocation="http://sumo.dlr.de/xsd/det_e1_file.xsd">
    <interval begin="0.00" end="179.01" id="E0_0" nVehContrib="17" flow="341.88" occupancy="1.11" speed="34.14" harmonicMeanSpeed="34.11" length="4.00" nVehEntered="17"/>
    <interval begin="0.00" end="179.01" id="E0_1" nVehContrib="8" flow="160.88" occupancy="0.60" speed="29.90" harmonicMeanSpeed="29.89" length="4.00" nVehEntered="8"/>
    <interval begin="0.00" end="179.01" id="E0_2" nVehContrib="6" flow="120.66" occupancy="0.44" speed="30.28" harmonicMeanSpeed="30.28" length="4.00" nVehEntered="6"/>
    <interval begin="0.00" end="179.01" id="E2_0" nVehContrib="0" flow="0.00" occupancy="0.00" speed="-1.00" harmonicMeanSpeed="-1.00" length="-1.00" nVehEntered="0"/>
    <interval begin="0.00" end="179.01" id="E2_1" nVehContrib="0" flow="0.00" occupancy="88.82" speed="-1.00" harmonicMeanSpeed="-1.00" length="-1.00" nVehEntered="1"/>
    <interval begin="0.00" end="179.01" id="E2_2" nVehContrib="0" flow="0.00" occupancy="0.00" speed="-1.00" harmonicMeanSpeed="-1.00" length="-1.00" nVehEntered="0"/>
</detector>
